version 3
run General-0-20241111-08:57:07-8532
attr configname General
attr datetime 20241111-08:57:07
attr datetimef 20241111-085707
attr experiment General
attr inifile omnetpp.ini
attr iterationvars ""
attr iterationvarsd ""
attr iterationvarsf ""
attr measurement ""
attr network DedicatedServerNetwork
attr processid 8532
attr repetition 0
attr replication #0
attr resultdir results
attr runnumber 0
attr seedset 0
config image-path ../../../../OMNet++/omnetpp-6.0.3/samples/inet4.5/images
config network DedicatedServerNetwork
config sim-time-limit 50s
config *.n 10

vector 0 DedicatedServerNetwork.client[0] ELO ETV
vector 1 DedicatedServerNetwork.client[0] TeamNumber ETV
vector 2 DedicatedServerNetwork.client[1] ELO ETV
vector 3 DedicatedServerNetwork.client[1] TeamNumber ETV
vector 4 DedicatedServerNetwork.client[2] ELO ETV
vector 5 DedicatedServerNetwork.client[2] TeamNumber ETV
vector 6 DedicatedServerNetwork.client[3] ELO ETV
vector 7 DedicatedServerNetwork.client[3] TeamNumber ETV
vector 8 DedicatedServerNetwork.client[4] ELO ETV
vector 9 DedicatedServerNetwork.client[4] TeamNumber ETV
vector 10 DedicatedServerNetwork.client[5] ELO ETV
vector 11 DedicatedServerNetwork.client[5] TeamNumber ETV
vector 12 DedicatedServerNetwork.client[6] ELO ETV
vector 13 DedicatedServerNetwork.client[6] TeamNumber ETV
vector 14 DedicatedServerNetwork.client[7] ELO ETV
vector 15 DedicatedServerNetwork.client[7] TeamNumber ETV
vector 16 DedicatedServerNetwork.client[8] ELO ETV
vector 17 DedicatedServerNetwork.client[8] TeamNumber ETV
vector 18 DedicatedServerNetwork.client[9] ELO ETV
vector 19 DedicatedServerNetwork.client[9] TeamNumber ETV
vector 20 DedicatedServerNetwork.client[0] Ping ETV
vector 21 DedicatedServerNetwork.client[1] Ping ETV
vector 22 DedicatedServerNetwork.client[2] Ping ETV
vector 23 DedicatedServerNetwork.client[3] Ping ETV
vector 24 DedicatedServerNetwork.client[4] Ping ETV
vector 25 DedicatedServerNetwork.client[5] Ping ETV
vector 26 DedicatedServerNetwork.client[6] Ping ETV
vector 27 DedicatedServerNetwork.client[7] Ping ETV
vector 28 DedicatedServerNetwork.client[8] Ping ETV
vector 29 DedicatedServerNetwork.client[9] Ping ETV
0	0	0	1206.0069580078
1	0	0	0
2	0	0	1789.1160888672
3	0	0	1
4	0	0	1334.3598632812
5	0	0	0
6	0	0	1370.2601318359
7	0	0	1
8	0	0	1400.7907714844
9	0	0	0
10	0	0	1949.3289794922
11	0	0	1
12	0	0	1550.8208007812
13	0	0	0
14	0	0	1138.6091308594
15	0	0	1
16	0	0	1497.8414306641
17	0	0	0
18	0	0	1551.173828125
19	0	0	1
20	11	0	0
20	22	31.182739839423	5.5891628072579e-05
20	33	37.244158869144	6.6757353590736e-05
20	44	37.440675115213	6.7108670468186e-05
20	55	39.642230819445	7.1055606823405e-05
20	66	40.138168518897	7.1944653443063e-05
20	77	41.178184819873	7.3808783317271e-05
20	88	44.0183886257	7.8899291609186e-05
20	99	45.75946824858	8.2019916652644e-05
20	110	48.451595071238	8.6845144973891e-05
21	12	0	0
21	23	31.182739839423	5.5891630076219e-05
21	34	37.244158869144	6.6757355983897e-05
21	45	37.440675115213	6.7108672873942e-05
21	56	39.642230819445	7.1055609370653e-05
21	67	40.138168518897	7.1944656022182e-05
21	78	41.178184819873	7.3808785963216e-05
21	89	44.0183886257	7.8899294437619e-05
21	100	45.75946824858	8.2019919592947e-05
21	111	48.451595071238	8.6845148087172e-05
22	13	0	0
22	24	31.182739839423	5.5891628072579e-05
22	35	37.244158869144	6.6757353590736e-05
22	46	37.440675115213	6.7108670468186e-05
22	57	39.642230819445	7.1055606823405e-05
22	68	40.138168518897	7.1944653443063e-05
22	79	41.178184819873	7.3808783317271e-05
22	90	44.0183886257	7.8899291609186e-05
22	101	45.75946824858	8.2019916652644e-05
22	112	48.451595071238	8.6845144973891e-05
23	14	0	0
23	25	31.182739839423	5.5891629074399e-05
23	36	37.244158869144	6.6757354787316e-05
23	47	37.440675115213	6.7108671671064e-05
23	58	39.642230819445	7.1055608097029e-05
23	69	40.138168518897	7.1944654732623e-05
23	80	41.178184819873	7.3808784640243e-05
23	91	44.0183886257	7.8899293023403e-05
23	102	45.75946824858	8.2019918122795e-05
23	113	48.451595071238	8.6845146530531e-05
24	15	0	0
24	26	31.182739839423	5.5891628072579e-05
24	37	37.244158869144	6.6757353590736e-05
24	48	37.440675115213	6.7108670468186e-05
24	59	39.642230819445	7.1055606823405e-05
24	70	40.138168518897	7.1944653443063e-05
24	81	41.178184819873	7.3808783317271e-05
24	92	44.0183886257	7.8899291609186e-05
24	103	45.75946824858	8.2019916652644e-05
24	114	48.451595071238	8.6845144973891e-05
25	16	0	0
25	27	31.182739839423	6.7529393835137e-05
25	38	37.244158869144	8.0657582882515e-05
25	49	37.440675115213	8.1082051059533e-05
25	60	39.642230819445	8.5850819312579e-05
25	71	40.138168518897	8.6924983427448e-05
25	82	41.178184819873	8.9177262826429e-05
25	93	44.0183886257	9.5327717800641e-05
25	104	45.75946824858	9.9098120048306e-05
25	115	48.451595071238	0.00010492805841165
26	17	0	0
26	28	31.182739839423	5.5891629074399e-05
26	39	37.244158869144	6.6757354787316e-05
26	50	37.440675115213	6.7108671671064e-05
26	61	39.642230819445	7.1055608097029e-05
26	72	40.138168518897	7.1944654732623e-05
26	83	41.178184819873	7.3808784640243e-05
26	94	44.0183886257	7.8899293023403e-05
26	105	45.75946824858	8.2019918122795e-05
26	116	48.451595071238	8.6845146530531e-05
27	18	0	0
27	29	31.182739839423	5.5891628072579e-05
27	40	37.244158869144	6.6757353590736e-05
27	51	37.440675115213	6.7108670468186e-05
27	62	39.642230819445	7.1055606823405e-05
27	73	40.138168518897	7.1944653443063e-05
27	84	41.178184819873	7.3808783317271e-05
27	95	44.0183886257	7.8899291609186e-05
27	106	45.75946824858	8.2019916652644e-05
27	117	48.451595071238	8.6845144973891e-05
28	19	0	0
28	30	31.182739839423	5.5891628072579e-05
28	41	37.244158869144	6.6757353590736e-05
28	52	37.440675115213	6.7108670468186e-05
28	63	39.642230819445	7.1055606823405e-05
28	74	40.138168518897	7.1944653443063e-05
28	85	41.178184819873	7.3808783317271e-05
28	96	44.0183886257	7.8899291609186e-05
28	107	45.75946824858	8.2019916652644e-05
28	118	48.451595071238	8.6845144973891e-05
29	20	0	0
29	31	31.182739839423	5.5891632079858e-05
29	42	37.244158869144	6.6757358377058e-05
29	53	37.440675115213	6.7108675279697e-05
29	64	39.642230819445	7.1055611917901e-05
29	75	40.138168518897	7.1944658601301e-05
29	86	41.178184819873	7.3808788609161e-05
29	97	44.0183886257	7.8899297266053e-05
29	108	45.75946824858	8.2019922533251e-05
29	119	48.451595071238	8.6845151200454e-05

